# vtk DataFile Version 2.0
DGS printing
ASCII
DATASET UNSTRUCTURED_GRID
POINTS  14856  floats
49.81035 1.72200 18.97770 49.41850 1.72200 18.58585 49.02665 1.72200 18.97770 
49.41850 1.72200 19.36955 49.81035 3.71220 18.97770 49.41850 3.71220 18.58585 
49.02665 3.71220 18.97770 49.41850 3.71220 19.36955 49.69558 1.72200 18.70062 
49.14142 1.72200 18.70062 49.14142 1.72200 19.25478 49.69558 1.72200 19.25478 
49.69558 3.71220 18.70062 49.14142 3.71220 18.70062 49.14142 3.71220 19.25478 
49.69558 3.71220 19.25478 49.81035 2.71710 18.97770 49.41850 2.71710 18.58585 
49.02665 2.71710 18.97770 49.41850 2.71710 19.36955 49.69558 2.71710 19.25478 
49.14142 2.71710 18.70062 49.69558 2.71710 18.70062 49.14142 2.71710 19.25478 
49.51535 1.87400 18.12690 49.41850 1.97085 18.12690 49.32165 1.87400 18.12690 
49.41850 1.77715 18.12690 49.51535 1.87400 18.54886 49.41850 1.97085 18.54886 
49.32165 1.87400 18.54886 49.41850 1.77715 18.54886 49.48698 1.94248 18.12690 
49.35002 1.94248 18.12690 49.35002 1.80552 18.12690 49.48698 1.80552 18.12690 
49.48698 1.94248 18.54886 49.35002 1.94248 18.54886 49.35002 1.80552 18.54886 
49.48698 1.80552 18.54886 49.51535 1.87400 18.33788 49.41850 1.97085 18.33788 
49.32165 1.87400 18.33788 49.41850 1.77715 18.33788 49.48698 1.80552 18.33788 
49.35002 1.94248 18.33788 49.48698 1.94248 18.33788 49.35002 1.80552 18.33788 
49.29396 1.97085 17.90413 49.29396 1.87400 18.00098 49.29396 1.77715 17.90413 
49.29396 1.87400 17.80728 50.12944 1.97085 17.90413 50.12944 1.87400 18.00098 
50.12944 1.77715 17.90413 50.12944 1.87400 17.80728 49.29396 1.94248 17.97261 
49.29396 1.80552 17.97261 49.29396 1.80552 17.83565 49.29396 1.94248 17.83565 
50.12944 1.94248 17.97261 50.12944 1.80552 17.97261 50.12944 1.80552 17.83565 
50.12944 1.94248 17.83565 49.71170 1.97085 17.90413 49.71170 1.87400 18.00098 
49.71170 1.77715 17.90413 49.71170 1.87400 17.80728 49.71170 1.94248 17.83565 
49.71170 1.80552 17.97261 49.71170 1.94248 17.97261 49.71170 1.80552 17.83565 
50.12944 1.97085 17.90413 50.12944 1.87400 18.00098 50.12944 1.77715 17.90413 
50.12944 1.87400 17.80728 50.96492 1.97085 17.90413 50.96492 1.87400 18.00098 
50.96492 1.77715 17.90413 50.96492 1.87400 17.80728 50.12944 1.94248 17.97261 
50.12944 1.80552 17.97261 50.12944 1.80552 17.83565 50.12944 1.94248 17.83565 
50.96492 1.94248 17.97261 50.96492 1.80552 17.97261 50.96492 1.80552 17.83565 
50.96492 1.94248 17.83565 50.54718 1.97085 17.90413 50.54718 1.87400 18.00098 
50.54718 1.77715 17.90413 50.54718 1.87400 17.80728 50.54718 1.94248 17.83565 
50.54718 1.80552 17.97261 50.54718 1.94248 17.97261 50.54718 1.80552 17.83565 
50.93724 1.87418 18.12674 50.84039 1.97103 18.12674 50.74354 1.87418 18.12674 
50.84039 1.77733 18.12674 50.93724 1.87418 18.84221 50.84039 1.97103 18.84221 
50.74354 1.87418 18.84221 50.84039 1.77733 18.84221 50.90887 1.94266 18.12674 
50.77191 1.94266 18.12674 50.77191 1.80569 18.12674 50.90887 1.80569 18.12674 
50.90887 1.94266 18.84221 50.77191 1.94266 18.84221 50.77191 1.80569 18.84221 
50.90887 1.80569 18.84221 50.93724 1.87418 18.48447 50.84039 1.97103 18.48447 
50.74354 1.87418 18.48447 50.84039 1.77733 18.48447 50.90887 1.80569 18.48447 
50.77191 1.94266 18.48447 50.90887 1.94266 18.48447 50.77191 1.80569 18.48447 
50.93724 1.87418 18.84221 50.84039 1.97103 18.84221 50.74354 1.87418 18.84221 
50.84039 1.77733 18.84221 50.93724 1.87418 19.56768 50.84039 1.97103 19.56768 
50.74354 1.87418 19.56768 50.84039 1.77733 19.56768 50.90887 1.94266 18.84221 
50.77191 1.94266 18.84221 50.77191 1.80569 18.84221 50.90887 1.80569 18.84221 
50.90887 1.94266 19.56768 50.77191 1.94266 19.56768 50.77191 1.80569 19.56768 
50.90887 1.80569 19.56768 50.93724 1.87418 19.20494 50.84039 1.97103 19.20494 
50.74354 1.87418 19.20494 50.84039 1.77733 19.20494 50.90887 1.80569 19.20494 
50.77191 1.94266 19.20494 50.90887 1.94266 19.20494 50.77191 1.80569 19.20494 
51.16706 2.01290 19.68343 51.20492 1.92375 19.78028 51.16706 2.01290 19.87713 
51.12920 2.10204 19.78028 50.71656 1.82159 19.68343 50.75442 1.73244 19.78028 
50.71656 1.82159 19.87713 50.67871 1.91073 19.78028 51.19383 1.94986 19.71180 
51.19383 1.94986 19.84876 51.14029 2.07593 19.84876 51.14029 2.07593 19.71180 
50.74333 1.75855 19.71180 50.74333 1.75855 19.84876 50.68979 1.88462 19.84876 
50.68979 1.88462 19.71180 50.94181 1.91724 19.68343 50.97967 1.82810 19.78028 
50.94181 1.91724 19.87713 50.90395 2.00639 19.78028 50.91504 1.98028 19.71180 
50.96858 1.85421 19.84876 50.96858 1.85421 19.71180 50.91504 1.98028 19.84876 
51.45960 2.09600 19.35384 51.36275 2.19285 19.35384 51.26590 2.09600 19.35384 
51.36275 1.99915 19.35384 51.45960 2.09600 19.87445 51.36275 2.19285 19.87445 
51.26590 2.09600 19.87445 51.36275 1.99915 19.87445 51.43123 2.16448 19.35384 
51.29427 2.16448 19.35384 51.29427 2.02752 19.35384 51.43123 2.02752 19.35384 
51.43123 2.16448 19.87445 51.29427 2.16448 19.87445 51.29427 2.02752 19.87445 
51.43123 2.02752 19.87445 51.45960 2.09600 19.61415 51.36275 2.19285 19.61415 
51.26590 2.09600 19.61415 51.36275 1.99915 19.61415 51.43123 2.02752 19.61415 
51.29427 2.16448 19.61415 51.43123 2.16448 19.61415 51.29427 2.02752 19.61415 
51.63775 1.95200 18.92520 51.36275 1.95200 18.65020 51.08775 1.95200 18.92520 
51.36275 1.95200 19.20020 51.63775 3.25685 18.92520 51.36275 3.25685 18.65020 
51.08775 3.25685 18.92520 51.36275 3.25685 19.20020 51.55720 1.95200 18.73075 
51.16830 1.95200 18.73075 51.16830 1.95200 19.11965 51.55720 1.95200 19.11965 
51.55720 3.25685 18.73075 51.16830 3.25685 18.73075 51.16830 3.25685 19.11965 
51.55720 3.25685 19.11965 51.63775 2.60442 18.92520 51.36275 2.60442 18.65020 
51.08775 2.60442 18.92520 51.36275 2.60442 19.20020 51.55720 2.60442 19.11965 
51.16830 2.60442 18.73075 51.55720 2.60442 18.73075 51.16830 2.60442 19.11965 
51.43593 2.09600 17.80979 51.36275 2.16918 17.80979 51.28957 2.09600 17.80979 
51.36275 2.02282 17.80979 51.43593 2.09600 18.49639 51.36275 2.16918 18.49639 
51.28957 2.09600 18.49639 51.36275 2.02282 18.49639 51.41450 2.14775 17.80979 
51.31100 2.14775 17.80979 51.31100 2.04425 17.80979 51.41450 2.04425 17.80979 
51.41450 2.14775 18.49639 51.31100 2.14775 18.49639 51.31100 2.04425 18.49639 
51.41450 2.04425 18.49639 51.43593 2.09600 18.15309 51.36275 2.16918 18.15309 
51.28957 2.09600 18.15309 51.36275 2.02282 18.15309 51.41450 2.04425 18.15309 
51.31100 2.14775 18.15309 51.41450 2.14775 18.15309 51.31100 2.04425 18.15309 
51.43593 1.11497 17.90413 51.36275 1.11497 17.83095 51.28957 1.11497 17.90413 
51.36275 1.11497 17.97731 51.43593 1.90339 17.90413 51.36275 1.90339 17.83095 
51.28957 1.90339 17.90413 51.36275 1.90339 17.97731 51.41450 1.11497 17.85238 
51.31100 1.11497 17.85238 51.31100 1.11497 17.95588 51.41450 1.11497 17.95588 
51.41450 1.90339 17.85238 51.31100 1.90339 17.85238 51.31100 1.90339 17.95588 
51.41450 1.90339 17.95588 51.43593 1.50918 17.90413 51.36275 1.50918 17.83095 
51.28957 1.50918 17.90413 51.36275 1.50918 17.97731 51.41450 1.50918 17.95588 
51.31100 1.50918 17.85238 51.41450 1.50918 17.85238 51.31100 1.50918 17.95588 
50.24475 1.28268 17.90413 50.24475 1.20950 17.97731 50.24475 1.13632 17.90413 
50.24475 1.20950 17.83095 51.17014 1.28268 17.90413 51.17014 1.20950 17.97731 
51.17014 1.13632 17.90413 51.17014 1.20950 17.83095 50.24475 1.26125 17.95588 
50.24475 1.15775 17.95588 50.24475 1.15775 17.85238 50.24475 1.26125 17.85238 
51.17014 1.26125 17.95588 51.17014 1.15775 17.95588 51.17014 1.15775 17.85238 
51.17014 1.26125 17.85238 50.70745 1.28268 17.90413 50.70745 1.20950 17.97731 
50.70745 1.13632 17.90413 50.70745 1.20950 17.83095 50.70745 1.26125 17.85238 
50.70745 1.15775 17.95588 50.70745 1.26125 17.95588 50.70745 1.15775 17.85238 
49.31936 1.28268 17.90413 49.31936 1.20950 17.97731 49.31936 1.13632 17.90413 
49.31936 1.20950 17.83095 50.24475 1.28268 17.90413 50.24475 1.20950 17.97731 
50.24475 1.13632 17.90413 50.24475 1.20950 17.83095 49.31936 1.26125 17.95588 
49.31936 1.15775 17.95588 49.31936 1.15775 17.85238 49.31936 1.26125 17.85238 
50.24475 1.26125 17.95588 50.24475 1.15775 17.95588 50.24475 1.15775 17.85238 
50.24475 1.26125 17.85238 49.78206 1.28268 17.90413 49.78206 1.20950 17.97731 
49.78206 1.13632 17.90413 49.78206 1.20950 17.83095 49.78206 1.26125 17.85238 
49.78206 1.15775 17.95588 49.78206 1.26125 17.95588 49.78206 1.15775 17.85238 
48.39397 1.28268 17.90413 48.39397 1.20950 17.97731 48.39397 1.13632 17.90413 
48.39397 1.20950 17.83095 49.31936 1.28268 17.90413 49.31936 1.20950 17.97731 
49.31936 1.13632 17.90413 49.31936 1.20950 17.83095 48.39397 1.26125 17.95588 
48.39397 1.15775 17.95588 48.39397 1.15775 17.85238 48.39397 1.26125 17.85238 
49.31936 1.26125 17.95588 49.31936 1.15775 17.95588 49.31936 1.15775 17.85238 
49.31936 1.26125 17.85238 48.85667 1.28268 17.90413 48.85667 1.20950 17.97731 
48.85667 1.13632 17.90413 48.85667 1.20950 17.83095 48.85667 1.26125 17.85238 
48.85667 1.15775 17.95588 48.85667 1.26125 17.95588 48.85667 1.15775 17.85238 
48.56168 0.04807 17.90413 48.48850 0.04807 17.83095 48.41532 0.04807 17.90413 
48.48850 0.04807 17.97731 48.56168 1.01687 17.90413 48.48850 1.01687 17.83095 
48.41532 1.01687 17.90413 48.48850 1.01687 17.97731 48.54025 0.04807 17.85238 
48.43675 0.04807 17.85238 48.43675 0.04807 17.95588 48.54025 0.04807 17.95588 
48.54025 1.01687 17.85238 48.43675 1.01687 17.85238 48.43675 1.01687 17.95588 
48.54025 1.01687 17.95588 48.56168 0.53247 17.90413 48.48850 0.53247 17.83095 
48.41532 0.53247 17.90413 48.48850 0.53247 17.97731 48.54025 0.53247 17.95588 
48.43675 0.53247 17.85238 48.54025 0.53247 17.85238 48.43675 0.53247 17.95588 
48.56168 -0.14451 17.80960 48.48850 -0.07133 17.80960 48.41532 -0.14451 17.80960 
48.48850 -0.21769 17.80960 48.56168 -0.14451 18.69378 48.48850 -0.07133 18.69378 
48.41532 -0.14451 18.69378 48.48850 -0.21769 18.69378 48.54025 -0.09277 17.80960 
[...]
CELL_DATA  619 
SCALARS node_id int 1 
LOOKUP_TABLE default
1
2
3
4
5
6
7
8
9
10
11
12
13
14
15
16
17
18
19
20
21
22
23
24
25
26
27
28
29
30
31
32
33
34
35
36
37
38
39
40
41
42
43
44
45
46
47
48
49
50
51
52
53
54
55
56
57
58
59
60
61
62
63
64
65
66
67
68
69
70
71
72
73
74
75
76
77
78
79
80
81
82
83
84
85
86
87
88
89
90
91
92
93
94
95
96
97
98
99
100
101
102
103
104
105
106
107
108
109
110
111
112
113
114
115
116
117
118
119
120
121
122
123
124
125
126
127
128
129
130
131
132
133
134
135
136
137
138
139
140
141
142
143
144
145
146
147
148
149
150
151
152
153
154
155
156
157
158
159
160
161
162
163
164
165
166
167
168
169
170
171
172
173
174
175
176
177
178
179
180
181
182
183
184
185
186
187
188
189
190
191
192
193
194
195
196
197
198
199
200
201
202
203
204
205
206
207
208
209
210
211
212
213
214
215
216
217
218
219
220
221
222
223
224
225
226
227
228
229
230
231
232
233
234
235
236
237
238
239
240
241
242
243
244
245
246
247
248
249
250
251
252
253
254
255
256
257
258
259
260
261
262
263
264
265
266
267
268
269
270
271
272
273
274
275
276
277
278
279
280
281
282
283
284
285
286
287
288
289
290
291
292
293
294
295
296
297
298
299
300
301
302
303
304
305
306
307
308
309
310
311
312
313
314
315
316
317
318
319
320
321
322
323
324
325
326
327
328
329
330
331
332
333
334
335
336
337
338
339
340
341
342
343
344
345
346
347
348
349
350
351
352
353
354
355
356
357
358
359
360
361
362
363
364
365
366
367
368
369
370
371
372
373
374
375
376
377
378
379
380
381
382
383
384
385
386
387
388
389
390
391
392
393
394
395
396
397
398
399
400
401
402
403
404
405
406
407
408
409
410
411
412
413
414
415
416
417
418
419
420
421
422
423
424
425
426
427
428
429
430
431
432
433
434
435
436
437
438
439
440
441
442
443
444
445
446
447
448
449
450
451
452
453
454
455
456
457
458
459
460
461
462
463
464
465
466
467
468
469
470
471
472
473
474
475
476
477
478
479
480
481
482
483
484
485
486
487
488
489
490
491
492
493
494
495
496
497
498
499
500
501
502
503
504
505
506
507
508
509
510
511
512
513
514
515
516
517
518
519
520
521
522
523
524
525
526
527
528
529
530
531
532
533
534
535
536
537
538
539
540
541
542
543
544
545
546
547
548
549
550
551
552
553
554
555
556
557
558
559
560
561
562
563
564
565
566
567
568
569
570
571
572
573
574
575
576
577
578
579
580
581
582
583
584
585
586
587
588
589
590
591
592
593
594
595
596
597
598
599
600
601
602
603
604
605
606
607
608
609
610
611
612
613
614
615
616
617
618
619
SCALARS node_emission_intensity_particle_s double 1 
LOOKUP_TABLE default
7.12152e+11
2.79927e+09
5.32577e+09
5.06284e+09
4.13232e+09
4.01496e+09
2.61376e+09
2.68988e+09
3.91641e+10
1.02594e+09
1.14198e+09
1.29527e+09
1.25640e+09
1.21525e+09
1.22894e+09
1.09044e+09
1.05581e+09
1.02224e+09
9.86012e+08
2.89561e+08
5.62105e+08
6.32580e+08
5.53358e+08
5.41138e+08
7.04912e+08
6.87416e+08
1.02350e+09
9.84798e+08
9.56798e+08
5.53429e+08
3.02629e+08
7.59079e+08
7.34576e+08
7.09427e+08
6.88145e+08
7.33204e+08
6.10464e+08
5.93653e+08
5.75272e+08
5.57431e+08
5.38964e+08
5.36278e+08
5.19421e+08
5.04882e+08
3.53657e+08
5.32038e+08
5.15594e+08
4.94722e+08
4.13419e+08
4.00162e+08
3.89476e+08
4.35616e+08
3.06975e+08
2.98442e+08
5.21565e+07
6.57134e+07
1.20985e+08
5.82428e+07
4.84203e+07
7.69648e+07
7.45694e+07
7.23278e+07
6.67485e+07
6.47063e+07
4.02525e+07
3.95480e+07
5.36415e+08
6.16143e+07
5.92510e+07
5.90188e+07
5.68985e+07
6.11515e+07
4.19295e+07
8.22416e+07
7.95366e+07
9.14194e+07
8.81339e+07
5.54010e+08
3.01659e+07
2.18292e+07
4.96651e+07
4.80831e+07
4.82208e+07
4.66739e+07
3.21711e+07
2.91375e+07
4.88843e+07
9.60524e+07
6.80704e+07
7.51114e+07
7.25980e+07
7.04996e+07
6.97951e+07
6.76926e+07
3.85341e+07
2.79368e+07
5.12619e+08
5.85215e+07
5.60372e+07
5.57577e+07
5.33930e+07
3.76538e+07
3.06976e+07
7.67184e+07
7.44875e+07
7.22142e+07
9.10349e+07
8.75125e+07
5.57854e+08
3.06452e+07
2.20923e+07
5.04052e+07
4.90475e+07
6.10828e+07
5.86512e+07
3.81163e+07
3.33580e+07
3.26137e+07
1.26357e+07
2.13740e+07
1.99960e+08
1.15395e+08
1.05863e+08
1.15690e+08
8.69897e+07
9.52359e+07
9.31554e+07
1.66835e+08
1.60964e+08
1.28584e+08
1.29880e+08
1.25453e+08
1.02350e+08
9.05515e+07
3.62482e+09
1.04392e+00
3.98789e+00
3.86713e+00
3.75550e+00
3.31459e+00
3.23199e+00
4.12087e+00
3.98881e+00
3.85207e+00
3.72596e+00
3.50466e+00
3.39447e+00
1.90752e+00
3.93284e-01
8.88072e-01
1.57263e+00
8.57656e-01
8.49822e-01
1.37048e+00
1.35050e+00
6.96703e-01
6.90838e-01
6.03306e+00
1.04024e+00
1.02677e+00
1.01195e+00
7.28537e-01
7.20810e-01
1.16491e+00
1.23208e+00
6.92066e-01
6.81665e-01
3.15749e-01
2.52152e+00
1.28763e+00
1.38786e+00
1.64037e+00
1.59314e+00
7.16793e-01
1.53872e+00
1.50629e+00
1.40495e+00
1.36824e+00
1.82356e+00
1.77058e+00
1.71176e+00
1.66072e+00
1.60838e+00
1.80073e+00
1.60245e+00
1.54672e+00
1.50029e+00
8.04201e-01
1.42317e+00
1.37500e+00
1.32975e+00
1.07313e+00
1.04002e+00
1.00973e+00
1.33036e+00
1.28755e+00
1.07119e+00
1.03630e+00
9.27128e-01
8.99108e-01
1.04279e+00
1.00541e+00
9.69633e-01
9.36776e-01
5.37180e-01
5.25601e-01
3.22743e-01
4.75565e-01
4.67621e-01
7.87696e-01
7.63255e-01
7.36484e-01
7.10888e-01
4.30093e-01
4.20334e-01
6.71563e-01
8.09407e-02
2.00601e-01
1.18357e-01
1.16676e-01
4.06259e-02
4.05320e-02
4.04455e-02
1.64283e+00
1.62680e+00
1.63926e+00
1.58375e-02
1.56876e-02
1.58462e-02
4.60475e-02
4.55528e-02
7.46000e-02
2.92736e-02
7.13152e-02
2.09445e-01
1.70298e-01
4.07756e-02
4.08933e-02
4.08693e-02
1.65102e+00
1.64763e+00
1.65664e+00
1.59500e-02
1.57453e-02
1.59795e-02
6.71200e-02
7.92861e-02
2.60978e-02
2.22020e-01
2.05958e-01
1.99897e-01
1.92583e-01
1.63337e-01
7.22088e-02
1.59934e-01
8.58530e-02
1.02714e-01
1.00604e-01
9.11777e-02
1.10455e-01
4.80647e+00
3.96242e-13
3.32281e-13
4.31286e-13
4.42599e-13
4.09000e-13
3.93729e-13
3.79545e-13
3.67155e-13
3.53140e-13
3.09885e-13
2.71992e-13
2.64123e-13
1.39991e-13
6.19675e-14
2.05046e-13
2.00399e-13
2.43190e-13
5.26791e-14
3.72031e-12
7.21249e-14
9.01823e-14
8.81987e-14
1.03886e-13
1.27701e-13
1.23714e-13
1.01781e-13
9.84799e-14
9.58041e-14
8.77459e-14
6.71404e-14
1.47271e-13
6.72190e-14
2.30530e-14
8.67220e-14
8.39977e-14
8.16667e-14
7.91900e-14
7.68240e-14
7.58124e-14
7.33303e-14
5.71253e-14
5.57197e-14
5.85630e-14
1.98081e-12
4.67990e-15
5.84201e-15
5.67944e-15
5.51951e-15
5.37552e-15
5.19661e-15
3.18020e-15
3.12742e-15
5.61844e-15
5.42360e-15
2.49425e-15
3.27937e-15
3.02657e-15
2.97506e-15
4.93022e-15
4.76926e-15
4.60197e-15
4.43856e-15
4.28558e-15
4.12875e-15
3.99500e-15
3.84954e-15
2.90014e-15
2.81322e-15
3.02211e-15
2.93079e-15
2.83802e-15
2.76880e-15
2.47318e-15
2.88929e-15
2.79904e-15
2.70118e-15
2.61938e-15
2.52889e-15
2.44629e-15
2.36459e-15
2.28490e-15
2.21362e-15
1.49337e-15
2.17104e-15
2.09140e-15
2.02473e-15
1.95642e-15
1.88641e-15
1.82161e-15
1.75826e-15
1.73104e-15
1.66728e-15
1.60943e-15
1.55812e-15
1.50018e-15
1.44288e-15
1.40059e-15
1.30905e-15
1.26999e-15
1.22350e-15
1.18796e-15
1.14329e-15
1.10729e-15
1.06777e-15
4.14628e-16
8.53306e-16
9.56714e-16
9.26191e-16
8.89703e-16
8.40703e-16
8.12416e-16
7.86446e-16
7.62944e-16
7.38468e-16
7.15649e-16
6.92750e-16
6.69715e-16
6.48288e-16
6.10804e-16
5.93846e-16
5.72173e-16
4.86931e-16
4.71074e-16
4.92909e-16
4.79021e-16
4.90650e-16
4.75549e-16
4.61514e-16
4.46461e-16
4.33254e-16
4.17812e-16
4.05958e-16
4.17081e-16
3.02799e-16
3.88043e-16
3.76383e-16
3.64791e-16
3.52473e-16
2.01197e-16
1.97798e-16
3.38445e-16
3.27177e-16
3.16706e-16
3.05896e-16
2.95737e-16
2.85644e-16
2.45967e-16
2.45886e-16
2.37153e-16
2.30414e-16
2.23982e-16
2.16644e-16
2.10968e-16
2.05352e-16
1.98745e-16
8.46426e-17
1.53405e-16
1.49523e-16
1.25103e-16
1.22224e-16
3.22197e-16
1.70898e-16
8.67630e-17
5.12403e-17
1.70222e-17
1.33947e-17
5.53897e-18
2.30220e-18
9.51290e-19
3.93404e-19
5.09821e-20
1.20185e-19
5.68735e-20
3.07053e-20
1.31447e-20
4.15426e-21
1.78244e-21
7.17204e-22
3.32411e-22
1.59971e-22
7.03798e-23
3.11479e-23
1.37003e-23
4.53703e-24
2.62593e-24
2.21707e-24
8.83837e-25
3.50922e-25
1.40258e-25
5.56901e-26
1.26789e-26
1.06177e-26
5.92577e-27
4.82506e-27
1.75292e-27
4.25117e-28
2.44211e-28
1.54913e-28
1.09840e-28
4.07874e-29
1.50123e-29
5.54541e-30
2.05249e-30
7.58777e-31
2.80427e-31
1.03960e-31
3.84027e-32
1.42551e-32
5.27130e-33
1.94741e-33
6.15573e-34
2.83268e-34
1.30850e-34
4.96593e-35
2.75178e-35
1.94729e-35
8.88138e-36
3.51695e-36
1.39786e-36
5.54410e-37
2.19570e-37
8.70407e-38
1.61159e-38
6.31774e-39
2.04668e-38
8.93317e-39
3.06993e-39
1.31910e-39
5.63754e-40
8.00397e-41
1.76281e-40
8.59800e-41
4.20873e-41
2.43367e-41
9.65318e-42
3.83936e-42
1.38033e-42
7.07990e-43
2.74948e-43
1.07413e-43
4.18394e-44
1.62458e-44
6.32535e-45
2.46425e-45
9.60921e-46
2.88595e-46
1.97888e-46
7.69631e-47
2.99360e-47
1.16395e-47
4.51756e-48
1.74640e-48
5.94393e-49
2.76061e-49
1.52373e-49
5.63216e-50
2.07315e-50
7.62918e-51
2.80339e-51
7.67756e-52
3.12531e-52
1.05254e-53
1.07093e-53
1.34553e-53
3.15726e-53
1.12716e-53
8.99993e-54
2.36385e-52
1.40249e-52
2.12332e+12
2.05512e+12
2.98564e+12
2.84375e+12
1.97150e+12
2.60289e+12
2.11802e+12
2.03881e+12
1.41326e+12
1.37147e+12
2.50546e+12
2.36076e+12
2.22389e+12
1.62102e+12
2.02182e+12
1.34713e+12
1.29143e+12
1.75820e+12
1.08084e+12
1.04543e+12
1.53025e+12
8.58897e+11
8.29733e+11
9.47057e+11
9.03956e+11
1.08381e+12
1.02896e+12
9.76605e+11
6.38946e+11
5.90928e+11
9.97512e+11
7.79252e+11
6.52010e+11
8.53179e+11
4.52966e+11
4.36109e+11
6.49394e+11
6.16185e+11
5.84705e+11
5.53416e+11
5.24383e+11
4.97380e+11
4.70866e+11
3.54255e+11
3.40271e+11
3.25764e+11
4.30929e+11
4.05468e+11
3.82961e+11
3.60587e+11
3.40270e+11
3.21725e+11
2.93300e+11
2.76768e+11
2.61525e+11
2.47700e+11
2.32907e+11
2.20243e+11
2.07926e+11
1.91302e+11
1.80383e+11
1.71083e+11
1.14950e+11
1.10311e+11
1.69137e+11
1.38995e+11
1.32031e+11
1.24771e+11
1.18197e+11
1.11994e+11
1.05849e+11
9.01574e+10
1.02223e+11
9.66124e+10
9.12688e+10
4.70653e+10
4.55476e+10
6.93085e+10
6.60964e+10
3.99928e+10
6.00942e+10
5.15572e+10
4.92752e+10
4.71784e+10
5.81843e+10
5.50148e+10
5.20304e+10
2.91433e+10
2.81752e+10
SCALARS node_emission_rate_particle_m3_s double 1 
LOOKUP_TABLE default
7.41800e+11
2.25124e+11
2.16320e+11
2.05641e+11
1.96000e+11
1.87808e+11
1.81226e+11
1.75335e+11
1.26332e+11
8.88136e+10
8.60926e+10
8.31954e+10
8.06992e+10
7.80557e+10
7.53985e+10
7.33038e+10
7.09760e+10
6.87194e+10
6.62838e+10
6.49997e+10
6.42751e+10
6.30047e+10
6.19905e+10
6.05075e+10
5.93653e+10
5.78956e+10
5.62845e+10
5.41564e+10
5.18166e+10
5.03212e+10
4.94772e+10
4.83230e+10
4.67632e+10
4.51622e+10
4.38074e+10
4.21133e+10
4.06879e+10
3.95674e+10
3.83423e+10
3.71532e+10
3.59224e+10
3.47296e+10
3.36379e+10
3.26964e+10
3.17771e+10
3.06605e+10
2.97129e+10
2.85100e+10
2.75543e+10
2.66707e+10
2.59585e+10
2.49479e+10
2.43045e+10
2.36289e+10
2.31653e+10
2.30995e+10
2.29424e+10
2.25106e+10
2.21177e+10
2.15771e+10
2.09055e+10
2.02771e+10
1.97962e+10
1.91905e+10
1.87906e+10
1.84591e+10
1.59647e+10
1.35707e+10
1.30501e+10
1.25349e+10
1.20846e+10
2.25026e+10
2.21537e+10
2.15859e+10
2.08759e+10
2.01352e+10
1.94130e+10
1.64884e+10
1.40800e+10
1.38785e+10
1.35830e+10
1.31503e+10
1.27369e+10
1.23283e+10
1.20100e+10
1.17553e+10
1.13914e+10
2.23993e+10
2.16216e+10
2.10575e+10
2.03528e+10
1.97646e+10
1.90883e+10
1.85133e+10
1.79886e+10
1.77539e+10
1.52565e+10
1.28895e+10
1.23423e+10
1.18423e+10
1.13400e+10
2.26462e+10
2.24407e+10
2.19731e+10
2.13342e+10
2.06831e+10
2.00822e+10
1.93051e+10
1.66028e+10
1.43037e+10
1.40457e+10
1.37854e+10
1.34140e+10
1.29574e+10
1.24415e+10
1.20601e+10
1.17707e+10
1.15081e+10
1.13492e+10
1.11641e+10
1.11141e+10
1.07796e+10
1.05528e+10
1.03079e+10
1.00810e+10
9.92889e+09
9.71198e+09
9.42398e+09
9.09243e+09
8.79716e+09
8.50608e+09
8.21612e+09
7.98530e+09
7.79475e+09
4.48602e+08
2.95611e+02
2.90754e+02
2.81950e+02
2.73811e+02
2.66340e+02
2.59703e+02
2.51571e+02
2.43509e+02
2.35161e+02
2.27458e+02
2.18935e+02
2.12056e+02
2.06056e+02
2.04050e+02
2.02279e+02
2.00836e+02
1.97763e+02
1.95957e+02
1.93366e+02
1.90546e+02
1.88835e+02
1.87218e+02
1.79555e+02
1.72208e+02
1.69976e+02
1.67523e+02
1.66493e+02
1.64727e+02
1.62675e+02
1.60523e+02
1.58461e+02
1.56080e+02
1.54953e+02
1.52415e+02
1.48938e+02
1.45456e+02
1.42824e+02
1.38712e+02
1.36404e+02
1.34023e+02
1.31199e+02
1.28227e+02
1.24876e+02
1.21542e+02
1.18010e+02
1.14090e+02
1.10688e+02
1.07199e+02
1.03429e+02
1.00084e+02
9.66031e+01
9.37027e+01
9.08647e+01
8.85382e+01
8.55416e+01
8.27262e+01
8.06511e+01
7.81620e+01
7.58858e+01
7.32636e+01
7.09061e+01
6.82304e+01
6.60084e+01
6.40791e+01
6.21425e+01
5.98200e+01
5.76757e+01
5.56236e+01
5.37387e+01
5.21256e+01
5.10020e+01
4.99693e+01
4.90923e+01
4.82722e+01
4.67147e+01
4.52652e+01
4.36776e+01
4.21596e+01
4.09985e+01
4.00682e+01
3.89569e+01
3.80421e+01
3.74959e+01
3.68823e+01
3.63584e+01
3.58415e+01
3.57586e+01
3.56823e+01
2.36642e+01
2.34333e+01
2.36129e+01
1.46633e+01
1.45245e+01
1.46713e+01
1.43492e+01
1.41951e+01
1.39441e+01
1.37586e+01
3.81277e+01
3.75075e+01
3.65919e+01
3.59736e+01
3.60774e+01
3.60562e+01
2.37822e+01
2.37334e+01
2.38632e+01
1.47675e+01
1.45779e+01
1.47948e+01
1.44221e+01
1.41985e+01
1.39528e+01
1.35228e+01
1.31173e+01
1.27313e+01
1.22654e+01
1.18775e+01
1.16174e+01
1.14166e+01
1.11007e+01
1.09252e+01
1.07009e+01
1.05237e+01
1.03132e+01
3.81460e-01
2.73717e-11
2.65687e-11
2.57746e-11
2.49740e-11
2.40689e-11
2.31702e-11
2.23355e-11
2.16064e-11
2.07816e-11
2.01432e-11
1.95007e-11
1.89366e-11
1.85412e-11
1.82835e-11
1.79841e-11
1.75765e-11
1.71124e-11
1.67777e-11
1.24007e-11
8.82287e-12
8.64257e-12
8.45248e-12
8.22683e-12
7.98168e-12
7.73249e-12
7.50430e-12
7.26093e-12
7.06364e-12
6.86967e-12
6.72775e-12
6.47858e-12
6.25290e-12
6.17281e-12
6.06484e-12
5.87432e-12
5.71130e-12
5.53809e-12
5.37263e-12
5.21356e-12
5.04287e-12
4.90292e-12
4.78228e-12
4.66081e-12
1.76860e-12
4.26606e-13
4.14999e-13
4.03450e-13
3.92089e-13
3.81861e-13
3.69151e-13
3.60912e-13
3.54928e-13
3.45119e-13
3.33151e-13
3.24137e-13
3.17853e-13
3.11386e-13
3.06085e-13
2.96392e-13
2.86715e-13
2.76658e-13
2.66835e-13
2.57638e-13
2.48210e-13
2.40169e-13
2.31424e-13
2.25111e-13
2.18364e-13
2.12769e-13
2.06340e-13
1.99808e-13
1.94935e-13
1.88307e-13
1.82705e-13
1.76998e-13
1.70810e-13
1.65637e-13
1.59915e-13
1.54692e-13
1.49526e-13
1.44486e-13
1.39979e-13
1.36051e-13
1.31990e-13
1.27148e-13
1.23095e-13
1.18942e-13
1.14685e-13
1.10746e-13
1.06894e-13
1.03491e-13
9.96788e-14
9.62201e-14
9.31528e-14
8.96886e-14
8.61450e-14
8.36205e-14
8.04258e-14
7.80259e-14
7.51699e-14
7.29861e-14
7.02418e-14
6.80303e-14
6.56020e-14
6.38748e-14
6.25458e-14
6.09383e-14
5.89941e-14
5.66700e-14
5.49468e-14
5.30980e-14
5.14006e-14
4.98645e-14
4.82648e-14
4.67734e-14
4.52768e-14
4.37713e-14
4.23709e-14
4.10780e-14
3.99375e-14
3.84799e-14
3.74569e-14
3.62371e-14
3.53227e-14
3.43274e-14
3.33491e-14
3.23228e-14
3.13688e-14
3.03456e-14
2.94480e-14
2.84424e-14
2.76354e-14
2.66409e-14
2.60328e-14
2.52035e-14
2.44462e-14
2.36933e-14
2.28933e-14
2.22961e-14
2.19194e-14
2.13137e-14
2.06041e-14
1.99447e-14
1.92639e-14
1.86242e-14
1.79885e-14
1.75218e-14
1.69265e-14
1.63253e-14
1.58614e-14
1.54186e-14
1.49135e-14
1.45228e-14
1.40309e-14
1.35795e-14
1.33480e-14
1.30778e-14
1.27468e-14
1.24738e-14
1.21867e-14
2.36452e-13
1.22366e-13
6.21277e-14
2.98055e-14
1.46356e-14
7.30282e-15
3.01986e-15
1.25517e-15
5.18646e-16
2.14485e-16
1.21201e-16
7.71982e-17
3.65316e-17
1.60634e-17
6.11356e-18
2.35743e-18
1.01149e-18
4.46994e-19
2.07174e-19
9.39067e-20
4.13146e-20
1.82845e-20
8.04241e-21
4.04680e-21
2.34220e-21
1.15475e-21
4.60344e-22
1.82776e-22
7.30531e-23
2.90060e-23
1.43879e-23
8.81739e-24
4.92100e-24
2.28686e-24
8.30807e-25
3.68035e-25
2.11421e-25
1.17032e-25
5.30349e-26
1.96937e-26
7.24855e-27
2.67754e-27
9.91025e-28
3.66368e-28
1.35401e-28
5.01958e-29
1.85424e-29
6.88294e-30
2.54519e-30
9.40288e-31
3.81165e-31
1.75400e-31
8.10225e-32
4.04222e-32
2.23992e-32
1.11010e-32
4.60781e-33
1.82465e-33
7.25232e-34
2.87637e-34
1.13916e-34
4.51581e-35
2.33730e-35
1.81473e-35
1.10809e-35
4.38124e-36
1.74272e-36
7.48819e-37
3.20028e-37
1.83704e-37
1.18512e-37
5.78035e-38
2.82949e-38
1.26749e-38
5.02750e-39
1.99959e-39
8.44207e-40
3.60518e-40
1.40007e-40
5.46960e-41
2.13052e-41
8.27256e-42
3.22095e-42
1.25483e-42
4.89314e-43
2.17667e-43
1.00477e-43
3.90778e-44
1.51999e-44
5.90990e-45
2.29378e-45
8.86729e-46
3.73820e-46
1.73618e-46
7.32850e-47
2.70882e-47
9.97094e-48
3.66931e-48
1.34831e-48
5.79500e-49
3.36725e-49
2.65357e-49
2.59072e-49
2.54031e-49
2.41540e-49
2.32006e-49
2.26933e-49
1.60832e-49
7.27288e-50
1.34906e+14
1.30573e+14
1.24694e+14
1.18768e+14
1.13953e+14
1.08573e+14
1.03713e+14
9.98349e+13
9.59081e+13
9.30723e+13
8.86758e+13
8.35545e+13
7.87101e+13
7.46685e+13
7.09321e+13
6.72852e+13
6.45031e+13
6.12232e+13
5.81823e+13
5.62760e+13
5.33411e+13
5.08631e+13
4.91360e+13
4.71554e+13
4.50094e+13
4.30303e+13
4.08526e+13
3.87740e+13
3.69952e+13
3.58676e+13
3.42018e+13
3.22120e+13
3.06182e+13
2.91293e+13
2.78211e+13
2.67857e+13
2.56492e+13
2.43375e+13
2.30942e+13
2.18583e+13
2.07116e+13
1.96451e+13
1.85979e+13
1.77146e+13
1.70153e+13
1.62898e+13
1.55122e+13
1.45957e+13
1.37855e+13
1.29801e+13
1.22488e+13
1.15812e+13
1.09216e+13
1.03060e+13
9.73840e+12
9.22359e+12
8.67275e+12
8.20118e+12
7.74253e+12
7.34219e+12
6.92310e+12
6.56620e+12
6.29087e+12
6.03698e+12
5.74230e+12
5.41013e+12
5.13904e+12
4.85646e+12
4.60061e+12
4.35917e+12
4.11996e+12
3.91920e+12
3.71352e+12
3.50971e+12
3.31559e+12
3.16727e+12
3.06515e+12
2.93647e+12
2.80038e+12
2.68860e+12
2.58279e+12
2.46374e+12
2.35469e+12
2.25449e+12
2.13812e+12
2.02165e+12
1.91198e+12
1.82813e+12
1.76663e+12
SCALARS volume_m3 double 1 
LOOKUP_TABLE default
9.60033e-01
1.24344e-02
2.46199e-02
2.46199e-02
2.10833e-02
2.13780e-02
1.44226e-02
1.53414e-02
3.10009e-01
1.15516e-02
1.32646e-02
1.55690e-02
1.55690e-02
1.55690e-02
1.62992e-02
1.48756e-02
1.48756e-02
1.48756e-02
1.48756e-02
4.45480e-03
8.74529e-03
1.00402e-02
8.92650e-03
8.94332e-03
1.18741e-02
1.18734e-02
1.81843e-02
1.81843e-02
1.84651e-02
1.09979e-02
6.11653e-03
1.57084e-02
1.57084e-02
1.57084e-02
1.57084e-02
1.74103e-02
1.50036e-02
1.50036e-02
1.50036e-02
1.50036e-02
1.50036e-02
1.54415e-02
1.54415e-02
1.54415e-02
1.11293e-02
1.73525e-02
1.73525e-02
1.73525e-02
1.50038e-02
1.50038e-02